REMARK  Name = 
REMARK  13 active torsions:
REMARK  status: ('A' for Active; 'I' for Inactive)
REMARK    1  A    between atoms: C_1  and  O_2
REMARK    2  A    between atoms: O_2  and  C_3
REMARK    3  A    between atoms: C_3  and  C_4
REMARK    4  A    between atoms: C_4  and  O_5
REMARK    5  A    between atoms: O_5  and  C_6
REMARK    6  A    between atoms: C_7  and  O_25
REMARK    7  A    between atoms: C_12  and  N_16
REMARK    8  A    between atoms: N_16  and  C_17
REMARK    9  A    between atoms: C_21  and  C_23
REMARK   10  A    between atoms: O_25  and  C_26
REMARK   11  A    between atoms: C_26  and  C_27
REMARK   12  A    between atoms: C_27  and  O_28
REMARK   13  A    between atoms: O_28  and  C_29
REMARK                            x       y       z     vdW  Elec       q    Type
REMARK                         _______ _______ _______ _____ _____    ______ ____
ROOT
ATOM      1  C   UNL     1      -1.526  -0.338  -0.317  0.00  0.00    +0.000 A 
ATOM      2  C   UNL     1      -2.229   0.871  -0.433  0.00  0.00    +0.000 A 
ATOM      3  C   UNL     1      -1.536   2.083  -0.331  0.00  0.00    +0.000 A 
ATOM      4  C   UNL     1      -0.167   2.132  -0.104  0.00  0.00    +0.000 A 
ATOM      5  C   UNL     1       0.542   0.933   0.033  0.00  0.00    +0.000 A 
ATOM      6  C   UNL     1      -0.150  -0.301  -0.085  0.00  0.00    +0.000 A 
ATOM      7  C   UNL     1       1.926   1.068   0.273  0.00  0.00    +0.000 A 
ATOM      8  N   UNL     1       2.520   2.272   0.340  0.00  0.00    +0.000 NA
ATOM      9  C   UNL     1       1.738   3.342   0.187  0.00  0.00    +0.000 A 
ATOM     10  N   UNL     1       0.418   3.330  -0.025  0.00  0.00    +0.000 NA
ENDROOT
BRANCH   7  11
ATOM     11  N   UNL     1       2.705  -0.106   0.464  0.00  0.00    +0.000 N 
ATOM     12  H   UNL     1       2.289  -0.658   1.208  0.00  0.00    +0.000 HD
BRANCH  11  13
ATOM     13  C   UNL     1       4.112  -0.242   0.451  0.00  0.00    +0.000 A 
ATOM     14  C   UNL     1       4.694  -1.334   1.115  0.00  0.00    +0.000 A 
ATOM     15  C   UNL     1       6.073  -1.552   1.079  0.00  0.00    +0.000 A 
ATOM     16  C   UNL     1       6.894  -0.692   0.353  0.00  0.00    +0.000 A 
ATOM     17  C   UNL     1       6.332   0.376  -0.345  0.00  0.00    +0.000 A 
ATOM     18  C   UNL     1       4.949   0.589  -0.305  0.00  0.00    +0.000 A 
BRANCH  17  19
ATOM     19  C   UNL     1       7.169   1.248  -1.111  0.00  0.00    +0.000 C 
ATOM     20  C   UNL     1       7.870   1.980  -1.755  0.00  0.00    +0.000 C 
ENDBRANCH  17  19
ENDBRANCH  11  13
ENDBRANCH   7  11
BRANCH   1  21
ATOM     21  O   UNL     1      -2.273  -1.482  -0.428  0.00  0.00    +0.000 OA
BRANCH  21  22
ATOM     22  C   UNL     1      -1.612  -2.745  -0.480  0.00  0.00    +0.000 C 
BRANCH  22  23
ATOM     23  C   UNL     1      -1.421  -3.326   0.921  0.00  0.00    +0.000 C 
BRANCH  23  25
ATOM     24  C   UNL     1      -1.256  -5.654   0.472  0.00  0.00    +0.000 C 
ATOM     25  O   UNL     1      -0.585  -4.483   0.919  0.00  0.00    +0.000 OA
ENDBRANCH  23  25
ENDBRANCH  22  23
ENDBRANCH  21  22
ENDBRANCH   1  21
BRANCH   2  26
ATOM     26  O   UNL     1      -3.580   0.762  -0.649  0.00  0.00    +0.000 OA
BRANCH  26  27
ATOM     27  C   UNL     1      -4.334   1.964  -0.793  0.00  0.00    +0.000 C 
BRANCH  27  28
ATOM     28  C   UNL     1      -5.793   1.590  -1.049  0.00  0.00    +0.000 C 
BRANCH  28  29
ATOM     29  O   UNL     1      -6.617   2.739  -1.248  0.00  0.00    +0.000 OA
ATOM     30  C   UNL     1      -7.038   3.338  -0.029  0.00  0.00    +0.000 C 
ENDBRANCH  28  29
ENDBRANCH  27  28
ENDBRANCH  26  27
ENDBRANCH   2  26
TORSDOF 11
