MODEL 1
REMARK VINA RESULT:    -7.019      0.000      0.000
REMARK INTER + INTRA:         -13.138
REMARK INTER:                 -11.533
REMARK INTRA:                  -1.605
REMARK UNBOUND:                -1.605
REMARK  Name = 
REMARK  13 active torsions:
REMARK  status: ('A' for Active; 'I' for Inactive)
REMARK    1  A    between atoms: C_1  and  O_2
REMARK    2  A    between atoms: O_2  and  C_3
REMARK    3  A    between atoms: C_3  and  C_4
REMARK    4  A    between atoms: C_4  and  O_5
REMARK    5  A    between atoms: O_5  and  C_6
REMARK    6  A    between atoms: C_7  and  O_25
REMARK    7  A    between atoms: C_12  and  N_16
REMARK    8  A    between atoms: N_16  and  C_17
REMARK    9  A    between atoms: C_21  and  C_23
REMARK   10  A    between atoms: O_25  and  C_26
REMARK   11  A    between atoms: C_26  and  C_27
REMARK   12  A    between atoms: C_27  and  O_28
REMARK   13  A    between atoms: O_28  and  C_29
REMARK                            x       y       z     vdW  Elec       q    Type
REMARK                         _______ _______ _______ _____ _____    ______ ____
ROOT
ATOM      1  C   UNL     1      25.136   0.121  53.013  0.00  0.00    +0.000 A 
ATOM      2  C   UNL     1      26.380   0.353  52.407  0.00  0.00    +0.000 A 
ATOM      3  C   UNL     1      26.552   1.481  51.596  0.00  0.00    +0.000 A 
ATOM      4  C   UNL     1      25.520   2.379  51.355  0.00  0.00    +0.000 A 
ATOM      5  C   UNL     1      24.269   2.148  51.938  0.00  0.00    +0.000 A 
ATOM      6  C   UNL     1      24.091   1.015  52.775  0.00  0.00    +0.000 A 
ATOM      7  C   UNL     1      23.271   3.099  51.636  0.00  0.00    +0.000 A 
ATOM      8  N   UNL     1      23.522   4.167  50.860  0.00  0.00    +0.000 NA
ATOM      9  C   UNL     1      24.757   4.282  50.368  0.00  0.00    +0.000 A 
ATOM     10  N   UNL     1      25.769   3.432  50.573  0.00  0.00    +0.000 NA
ENDROOT
BRANCH   7  11
ATOM     11  N   UNL     1      21.963   2.908  52.159  0.00  0.00    +0.000 N 
ATOM     12  H   UNL     1      22.028   2.765  53.162  0.00  0.00    +0.000 HD
BRANCH  11  13
ATOM     13  C   UNL     1      20.892   2.171  51.605  0.00  0.00    +0.000 A 
ATOM     14  C   UNL     1      20.622   2.293  50.233  0.00  0.00    +0.000 A 
ATOM     15  C   UNL     1      19.618   1.539  49.622  0.00  0.00    +0.000 A 
ATOM     16  C   UNL     1      18.880   0.626  50.372  0.00  0.00    +0.000 A 
ATOM     17  C   UNL     1      19.158   0.461  51.729  0.00  0.00    +0.000 A 
ATOM     18  C   UNL     1      20.166   1.220  52.335  0.00  0.00    +0.000 A 
BRANCH  17  19
ATOM     19  C   UNL     1      18.418  -0.492  52.498  0.00  0.00    +0.000 C 
ATOM     20  C   UNL     1      17.798  -1.291  53.145  0.00  0.00    +0.000 C 
ENDBRANCH  17  19
ENDBRANCH  11  13
ENDBRANCH   7  11
BRANCH   1  21
ATOM     21  O   UNL     1      25.046  -1.003  53.792  0.00  0.00    +0.000 OA
BRANCH  21  22
ATOM     22  C   UNL     1      24.748  -0.867  55.181  0.00  0.00    +0.000 C 
BRANCH  22  23
ATOM     23  C   UNL     1      23.431  -1.559  55.533  0.00  0.00    +0.000 C 
BRANCH  23  25
ATOM     24  C   UNL     1      21.313  -1.589  54.454  0.00  0.00    +0.000 C 
ATOM     25  O   UNL     1      22.293  -0.802  55.119  0.00  0.00    +0.000 OA
ENDBRANCH  23  25
ENDBRANCH  22  23
ENDBRANCH  21  22
ENDBRANCH   1  21
BRANCH   2  26
ATOM     26  O   UNL     1      27.360  -0.571  52.673  0.00  0.00    +0.000 OA
BRANCH  26  27
ATOM     27  C   UNL     1      28.599  -0.100  53.200  0.00  0.00    +0.000 C 
BRANCH  27  28
ATOM     28  C   UNL     1      28.420   0.158  54.695  0.00  0.00    +0.000 C 
BRANCH  28  29
ATOM     29  O   UNL     1      28.941   1.428  55.089  0.00  0.00    +0.000 OA
ATOM     30  C   UNL     1      29.072   2.336  54.002  0.00  0.00    +0.000 C 
ENDBRANCH  28  29
ENDBRANCH  27  28
ENDBRANCH  26  27
ENDBRANCH   2  26
TORSDOF 11
ENDMDL
MODEL 2
REMARK VINA RESULT:    -6.895      3.388      8.417
REMARK INTER + INTRA:         -12.933
REMARK INTER:                 -11.821
REMARK INTRA:                  -1.113
REMARK UNBOUND:                -1.605
REMARK  Name = 
REMARK  13 active torsions:
REMARK  status: ('A' for Active; 'I' for Inactive)
REMARK    1  A    between atoms: C_1  and  O_2
REMARK    2  A    between atoms: O_2  and  C_3
REMARK    3  A    between atoms: C_3  and  C_4
REMARK    4  A    between atoms: C_4  and  O_5
REMARK    5  A    between atoms: O_5  and  C_6
REMARK    6  A    between atoms: C_7  and  O_25
REMARK    7  A    between atoms: C_12  and  N_16
REMARK    8  A    between atoms: N_16  and  C_17
REMARK    9  A    between atoms: C_21  and  C_23
REMARK   10  A    between atoms: O_25  and  C_26
REMARK   11  A    between atoms: C_26  and  C_27
REMARK   12  A    between atoms: C_27  and  O_28
REMARK   13  A    between atoms: O_28  and  C_29
REMARK                            x       y       z     vdW  Elec       q    Type
REMARK                         _______ _______ _______ _____ _____    ______ ____
ROOT
ATOM      1  C   UNL     1      20.592   0.574  51.512  0.00  0.00    +0.000 A 
ATOM      2  C   UNL     1      19.645   0.036  52.397  0.00  0.00    +0.000 A 
ATOM      3  C   UNL     1      20.078  -0.577  53.579  0.00  0.00    +0.000 A 
ATOM      4  C   UNL     1      21.424  -0.685  53.903  0.00  0.00    +0.000 A 
ATOM      5  C   UNL     1      22.379  -0.170  53.018  0.00  0.00    +0.000 A 
ATOM      6  C   UNL     1      21.948   0.468  51.825  0.00  0.00    +0.000 A 
ATOM      7  C   UNL     1      23.724  -0.329  53.414  0.00  0.00    +0.000 A 
ATOM      8  N   UNL     1      24.056  -0.916  54.576  0.00  0.00    +0.000 NA
ATOM      9  C   UNL     1      23.055  -1.361  55.338  0.00  0.00    +0.000 A 
ATOM     10  N   UNL     1      21.752  -1.280  55.052  0.00  0.00    +0.000 NA
ENDROOT
BRANCH   7  11
ATOM     11  N   UNL     1      24.752   0.132  52.546  0.00  0.00    +0.000 N 
ATOM     12  H   UNL     1      24.738  -0.425  51.697  0.00  0.00    +0.000 HD
BRANCH  11  13
ATOM     13  C   UNL     1      26.066   0.535  52.873  0.00  0.00    +0.000 A 
ATOM     14  C   UNL     1      26.313   1.891  53.142  0.00  0.00    +0.000 A 
ATOM     15  C   UNL     1      27.578   2.334  53.533  0.00  0.00    +0.000 A 
ATOM     16  C   UNL     1      28.617   1.419  53.688  0.00  0.00    +0.000 A 
ATOM     17  C   UNL     1      28.384   0.063  53.464  0.00  0.00    +0.000 A 
ATOM     18  C   UNL     1      27.113  -0.374  53.072  0.00  0.00    +0.000 A 
BRANCH  17  19
ATOM     19  C   UNL     1      29.442  -0.883  53.645  0.00  0.00    +0.000 C 
ATOM     20  C   UNL     1      30.330  -1.677  53.798  0.00  0.00    +0.000 C 
ENDBRANCH  17  19
ENDBRANCH  11  13
ENDBRANCH   7  11
BRANCH   1  21
ATOM     21  O   UNL     1      20.092   1.158  50.377  0.00  0.00    +0.000 OA
BRANCH  21  22
ATOM     22  C   UNL     1      20.365   2.534  50.121  0.00  0.00    +0.000 C 
BRANCH  22  23
ATOM     23  C   UNL     1      19.395   3.439  50.880  0.00  0.00    +0.000 C 
BRANCH  23  25
ATOM     24  C   UNL     1      21.308   4.181  52.080  0.00  0.00    +0.000 C 
ATOM     25  O   UNL     1      19.923   3.868  52.136  0.00  0.00    +0.000 OA
ENDBRANCH  23  25
ENDBRANCH  22  23
ENDBRANCH  21  22
ENDBRANCH   1  21
BRANCH   2  26
ATOM     26  O   UNL     1      18.331   0.165  52.022  0.00  0.00    +0.000 OA
BRANCH  26  27
ATOM     27  C   UNL     1      17.445  -0.915  52.308  0.00  0.00    +0.000 C 
BRANCH  27  28
ATOM     28  C   UNL     1      16.012  -0.432  52.093  0.00  0.00    +0.000 C 
BRANCH  28  29
ATOM     29  O   UNL     1      15.482   0.216  53.250  0.00  0.00    +0.000 OA
ATOM     30  C   UNL     1      14.065   0.335  53.221  0.00  0.00    +0.000 C 
ENDBRANCH  28  29
ENDBRANCH  27  28
ENDBRANCH  26  27
ENDBRANCH   2  26
TORSDOF 11
ENDMDL
MODEL 3
REMARK VINA RESULT:    -6.774      2.330      5.005
REMARK INTER + INTRA:         -12.735
REMARK INTER:                 -11.647
REMARK INTRA:                  -1.088
REMARK UNBOUND:                -1.605
REMARK  Name = 
REMARK  13 active torsions:
REMARK  status: ('A' for Active; 'I' for Inactive)
REMARK    1  A    between atoms: C_1  and  O_2
REMARK    2  A    between atoms: O_2  and  C_3
REMARK    3  A    between atoms: C_3  and  C_4
REMARK    4  A    between atoms: C_4  and  O_5
REMARK    5  A    between atoms: O_5  and  C_6
REMARK    6  A    between atoms: C_7  and  O_25
REMARK    7  A    between atoms: C_12  and  N_16
REMARK    8  A    between atoms: N_16  and  C_17
REMARK    9  A    between atoms: C_21  and  C_23
REMARK   10  A    between atoms: O_25  and  C_26
REMARK   11  A    between atoms: C_26  and  C_27
REMARK   12  A    between atoms: C_27  and  O_28
REMARK   13  A    between atoms: O_28  and  C_29
REMARK                            x       y       z     vdW  Elec       q    Type
REMARK                         _______ _______ _______ _____ _____    ______ ____
ROOT
ATOM      1  C   UNL     1      25.615   0.821  52.109  0.00  0.00    +0.000 A 
ATOM      2  C   UNL     1      25.940  -0.187  53.029  0.00  0.00    +0.000 A 
ATOM      3  C   UNL     1      24.929  -0.756  53.813  0.00  0.00    +0.000 A 
ATOM      4  C   UNL     1      23.606  -0.344  53.721  0.00  0.00    +0.000 A 
ATOM      5  C   UNL     1      23.273   0.675  52.821  0.00  0.00    +0.000 A 
ATOM      6  C   UNL     1      24.289   1.245  52.010  0.00  0.00    +0.000 A 
ATOM      7  C   UNL     1      21.911   1.043  52.796  0.00  0.00    +0.000 A 
ATOM      8  N   UNL     1      20.997   0.434  53.571  0.00  0.00    +0.000 NA
ATOM      9  C   UNL     1      21.437  -0.527  54.384  0.00  0.00    +0.000 A 
ATOM     10  N   UNL     1      22.703  -0.942  54.502  0.00  0.00    +0.000 NA
ENDROOT
BRANCH   7  11
ATOM     11  N   UNL     1      21.504   2.099  51.935  0.00  0.00    +0.000 N 
ATOM     12  H   UNL     1      20.542   2.344  52.149  0.00  0.00    +0.000 HD
BRANCH  11  13
ATOM     13  C   UNL     1      21.783   2.274  50.561  0.00  0.00    +0.000 A 
ATOM     14  C   UNL     1      21.490   1.228  49.671  0.00  0.00    +0.000 A 
ATOM     15  C   UNL     1      21.685   1.371  48.296  0.00  0.00    +0.000 A 
ATOM     16  C   UNL     1      22.154   2.578  47.782  0.00  0.00    +0.000 A 
ATOM     17  C   UNL     1      22.415   3.642  48.644  0.00  0.00    +0.000 A 
ATOM     18  C   UNL     1      22.217   3.492  50.022  0.00  0.00    +0.000 A 
BRANCH  17  19
ATOM     19  C   UNL     1      22.875   4.890  48.118  0.00  0.00    +0.000 C 
ATOM     20  C   UNL     1      23.263   5.938  47.678  0.00  0.00    +0.000 C 
ENDBRANCH  17  19
ENDBRANCH  11  13
ENDBRANCH   7  11
BRANCH   1  21
ATOM     21  O   UNL     1      26.658   1.328  51.377  0.00  0.00    +0.000 OA
BRANCH  21  22
ATOM     22  C   UNL     1      26.678   2.719  51.061  0.00  0.00    +0.000 C 
BRANCH  22  23
ATOM     23  C   UNL     1      26.154   2.971  49.647  0.00  0.00    +0.000 C 
BRANCH  23  25
ATOM     24  C   UNL     1      27.465   4.751  48.776  0.00  0.00    +0.000 C 
ATOM     25  O   UNL     1      26.201   4.352  49.290  0.00  0.00    +0.000 OA
ENDBRANCH  23  25
ENDBRANCH  22  23
ENDBRANCH  21  22
ENDBRANCH   1  21
BRANCH   2  26
ATOM     26  O   UNL     1      27.263  -0.549  53.082  0.00  0.00    +0.000 OA
BRANCH  26  27
ATOM     27  C   UNL     1      27.981  -0.284  54.286  0.00  0.00    +0.000 C 
BRANCH  27  28
ATOM     28  C   UNL     1      29.391   0.174  53.915  0.00  0.00    +0.000 C 
BRANCH  28  29
ATOM     29  O   UNL     1      29.380   1.358  53.118  0.00  0.00    +0.000 OA
ATOM     30  C   UNL     1      28.882   2.493  53.816  0.00  0.00    +0.000 C 
ENDBRANCH  28  29
ENDBRANCH  27  28
ENDBRANCH  26  27
ENDBRANCH   2  26
TORSDOF 11
ENDMDL
MODEL 4
REMARK VINA RESULT:    -6.709      2.333      4.458
REMARK INTER + INTRA:         -12.629
REMARK INTER:                 -11.407
REMARK INTRA:                  -1.221
REMARK UNBOUND:                -1.605
REMARK  Name = 
REMARK  13 active torsions:
REMARK  status: ('A' for Active; 'I' for Inactive)
REMARK    1  A    between atoms: C_1  and  O_2
REMARK    2  A    between atoms: O_2  and  C_3
REMARK    3  A    between atoms: C_3  and  C_4
REMARK    4  A    between atoms: C_4  and  O_5
REMARK    5  A    between atoms: O_5  and  C_6
REMARK    6  A    between atoms: C_7  and  O_25
REMARK    7  A    between atoms: C_12  and  N_16
REMARK    8  A    between atoms: N_16  and  C_17
REMARK    9  A    between atoms: C_21  and  C_23
REMARK   10  A    between atoms: O_25  and  C_26
REMARK   11  A    between atoms: C_26  and  C_27
REMARK   12  A    between atoms: C_27  and  O_28
REMARK   13  A    between atoms: O_28  and  C_29
REMARK                            x       y       z     vdW  Elec       q    Type
REMARK                         _______ _______ _______ _____ _____    ______ ____
ROOT
ATOM      1  C   UNL     1      24.313   1.735  51.620  0.00  0.00    +0.000 A 
ATOM      2  C   UNL     1      25.352   0.983  52.191  0.00  0.00    +0.000 A 
ATOM      3  C   UNL     1      25.058   0.054  53.196  0.00  0.00    +0.000 A 
ATOM      4  C   UNL     1      23.765  -0.142  53.663  0.00  0.00    +0.000 A 
ATOM      5  C   UNL     1      22.723   0.617  53.115  0.00  0.00    +0.000 A 
ATOM      6  C   UNL     1      23.010   1.549  52.084  0.00  0.00    +0.000 A 
ATOM      7  C   UNL     1      21.442   0.367  53.651  0.00  0.00    +0.000 A 
ATOM      8  N   UNL     1      21.240  -0.557  54.606  0.00  0.00    +0.000 NA
ATOM      9  C   UNL     1      22.312  -1.220  55.042  0.00  0.00    +0.000 A 
ATOM     10  N   UNL     1      23.569  -1.051  54.621  0.00  0.00    +0.000 NA
ENDROOT
BRANCH   7  11
ATOM     11  N   UNL     1      20.340   1.129  53.173  0.00  0.00    +0.000 N 
ATOM     12  H   UNL     1      19.957   1.669  53.943  0.00  0.00    +0.000 HD
BRANCH  11  13
ATOM     13  C   UNL     1      19.328   0.741  52.265  0.00  0.00    +0.000 A 
ATOM     14  C   UNL     1      19.397   1.196  50.938  0.00  0.00    +0.000 A 
ATOM     15  C   UNL     1      18.460   0.792  49.985  0.00  0.00    +0.000 A 
ATOM     16  C   UNL     1      17.449  -0.099  50.338  0.00  0.00    +0.000 A 
ATOM     17  C   UNL     1      17.386  -0.593  51.640  0.00  0.00    +0.000 A 
ATOM     18  C   UNL     1      18.328  -0.184  52.591  0.00  0.00    +0.000 A 
BRANCH  17  19
ATOM     19  C   UNL     1      16.363  -1.527  52.001  0.00  0.00    +0.000 C 
ATOM     20  C   UNL     1      15.505  -2.309  52.305  0.00  0.00    +0.000 C 
ENDBRANCH  17  19
ENDBRANCH  11  13
ENDBRANCH   7  11
BRANCH   1  21
ATOM     21  O   UNL     1      24.680   2.623  50.643  0.00  0.00    +0.000 OA
BRANCH  21  22
ATOM     22  C   UNL     1      24.491   4.020  50.862  0.00  0.00    +0.000 C 
BRANCH  22  23
ATOM     23  C   UNL     1      25.564   4.841  50.146  0.00  0.00    +0.000 C 
BRANCH  23  25
ATOM     24  C   UNL     1      27.469   4.767  48.727  0.00  0.00    +0.000 C 
ATOM     25  O   UNL     1      26.508   4.019  49.460  0.00  0.00    +0.000 OA
ENDBRANCH  23  25
ENDBRANCH  22  23
ENDBRANCH  21  22
ENDBRANCH   1  21
BRANCH   2  26
ATOM     26  O   UNL     1      26.609   1.224  51.696  0.00  0.00    +0.000 OA
BRANCH  26  27
ATOM     27  C   UNL     1      27.727   0.863  52.506  0.00  0.00    +0.000 C 
BRANCH  27  28
ATOM     28  C   UNL     1      28.107   2.067  53.366  0.00  0.00    +0.000 C 
BRANCH  28  29
ATOM     29  O   UNL     1      28.679   1.678  54.615  0.00  0.00    +0.000 OA
ATOM     30  C   UNL     1      28.598   0.278  54.850  0.00  0.00    +0.000 C 
ENDBRANCH  28  29
ENDBRANCH  27  28
ENDBRANCH  26  27
ENDBRANCH   2  26
TORSDOF 11
ENDMDL
MODEL 5
REMARK VINA RESULT:    -6.709      3.337      7.657
REMARK INTER + INTRA:         -12.628
REMARK INTER:                 -11.387
REMARK INTRA:                  -1.240
REMARK UNBOUND:                -1.605
REMARK  Name = 
REMARK  13 active torsions:
REMARK  status: ('A' for Active; 'I' for Inactive)
REMARK    1  A    between atoms: C_1  and  O_2
REMARK    2  A    between atoms: O_2  and  C_3
REMARK    3  A    between atoms: C_3  and  C_4
REMARK    4  A    between atoms: C_4  and  O_5
REMARK    5  A    between atoms: O_5  and  C_6
REMARK    6  A    between atoms: C_7  and  O_25
REMARK    7  A    between atoms: C_12  and  N_16
REMARK    8  A    between atoms: N_16  and  C_17
REMARK    9  A    between atoms: C_21  and  C_23
REMARK   10  A    between atoms: O_25  and  C_26
REMARK   11  A    between atoms: C_26  and  C_27
REMARK   12  A    between atoms: C_27  and  O_28
REMARK   13  A    between atoms: O_28  and  C_29
REMARK                            x       y       z     vdW  Elec       q    Type
REMARK                         _______ _______ _______ _____ _____    ______ ____
ROOT
ATOM      1  C   UNL     1      22.410   2.151  51.131  0.00  0.00    +0.000 A 
ATOM      2  C   UNL     1      22.364   1.640  52.437  0.00  0.00    +0.000 A 
ATOM      3  C   UNL     1      23.552   1.505  53.165  0.00  0.00    +0.000 A 
ATOM      4  C   UNL     1      24.787   1.850  52.632  0.00  0.00    +0.000 A 
ATOM      5  C   UNL     1      24.847   2.343  51.323  0.00  0.00    +0.000 A 
ATOM      6  C   UNL     1      23.646   2.498  50.583  0.00  0.00    +0.000 A 
ATOM      7  C   UNL     1      26.139   2.659  50.851  0.00  0.00    +0.000 A 
ATOM      8  N   UNL     1      27.230   2.517  51.622  0.00  0.00    +0.000 NA
ATOM      9  C   UNL     1      27.043   2.044  52.855  0.00  0.00    +0.000 A 
ATOM     10  N   UNL     1      25.871   1.695  53.396  0.00  0.00    +0.000 NA
ENDROOT
BRANCH   7  11
ATOM     11  N   UNL     1      26.283   3.126  49.515  0.00  0.00    +0.000 N 
ATOM     12  H   UNL     1      26.756   2.413  48.968  0.00  0.00    +0.000 HD
BRANCH  11  13
ATOM     13  C   UNL     1      26.622   4.423  49.067  0.00  0.00    +0.000 A 
ATOM     14  C   UNL     1      25.661   5.444  49.156  0.00  0.00    +0.000 A 
ATOM     15  C   UNL     1      25.963   6.757  48.788  0.00  0.00    +0.000 A 
ATOM     16  C   UNL     1      27.245   7.078  48.348  0.00  0.00    +0.000 A 
ATOM     17  C   UNL     1      28.225   6.087  48.290  0.00  0.00    +0.000 A 
ATOM     18  C   UNL     1      27.916   4.773  48.660  0.00  0.00    +0.000 A 
BRANCH  17  19
ATOM     19  C   UNL     1      29.550   6.418  47.861  0.00  0.00    +0.000 C 
ATOM     20  C   UNL     1      30.662   6.693  47.502  0.00  0.00    +0.000 C 
ENDBRANCH  17  19
ENDBRANCH  11  13
ENDBRANCH   7  11
BRANCH   1  21
ATOM     21  O   UNL     1      21.207   2.253  50.482  0.00  0.00    +0.000 OA
BRANCH  21  22
ATOM     22  C   UNL     1      21.080   3.156  49.384  0.00  0.00    +0.000 C 
BRANCH  22  23
ATOM     23  C   UNL     1      20.918   2.401  48.065  0.00  0.00    +0.000 C 
BRANCH  23  25
ATOM     24  C   UNL     1      21.868   3.754  46.357  0.00  0.00    +0.000 C 
ATOM     25  O   UNL     1      22.022   2.607  47.183  0.00  0.00    +0.000 OA
ENDBRANCH  23  25
ENDBRANCH  22  23
ENDBRANCH  21  22
ENDBRANCH   1  21
BRANCH   2  26
ATOM     26  O   UNL     1      21.119   1.309  52.909  0.00  0.00    +0.000 OA
BRANCH  26  27
ATOM     27  C   UNL     1      21.038   0.604  54.147  0.00  0.00    +0.000 C 
BRANCH  27  28
ATOM     28  C   UNL     1      20.671  -0.849  53.850  0.00  0.00    +0.000 C 
BRANCH  28  29
ATOM     29  O   UNL     1      21.265  -1.755  54.781  0.00  0.00    +0.000 OA
ATOM     30  C   UNL     1      22.582  -1.376  55.162  0.00  0.00    +0.000 C 
ENDBRANCH  28  29
ENDBRANCH  27  28
ENDBRANCH  26  27
ENDBRANCH   2  26
TORSDOF 11
ENDMDL
MODEL 6
REMARK VINA RESULT:    -6.689      2.529      4.354
REMARK INTER + INTRA:         -12.596
REMARK INTER:                 -11.694
REMARK INTRA:                  -0.902
REMARK UNBOUND:                -1.605
REMARK  Name = 
REMARK  13 active torsions:
REMARK  status: ('A' for Active; 'I' for Inactive)
REMARK    1  A    between atoms: C_1  and  O_2
REMARK    2  A    between atoms: O_2  and  C_3
REMARK    3  A    between atoms: C_3  and  C_4
REMARK    4  A    between atoms: C_4  and  O_5
REMARK    5  A    between atoms: O_5  and  C_6
REMARK    6  A    between atoms: C_7  and  O_25
REMARK    7  A    between atoms: C_12  and  N_16
REMARK    8  A    between atoms: N_16  and  C_17
REMARK    9  A    between atoms: C_21  and  C_23
REMARK   10  A    between atoms: O_25  and  C_26
REMARK   11  A    between atoms: C_26  and  C_27
REMARK   12  A    between atoms: C_27  and  O_28
REMARK   13  A    between atoms: O_28  and  C_29
REMARK                            x       y       z     vdW  Elec       q    Type
REMARK                         _______ _______ _______ _____ _____    ______ ____
ROOT
ATOM      1  C   UNL     1      24.215   1.657  52.005  0.00  0.00    +0.000 A 
ATOM      2  C   UNL     1      25.356   1.063  52.566  0.00  0.00    +0.000 A 
ATOM      3  C   UNL     1      25.206   0.079  53.551  0.00  0.00    +0.000 A 
ATOM      4  C   UNL     1      23.958  -0.323  54.006  0.00  0.00    +0.000 A 
ATOM      5  C   UNL     1      22.813   0.276  53.468  0.00  0.00    +0.000 A 
ATOM      6  C   UNL     1      22.955   1.263  52.457  0.00  0.00    +0.000 A 
ATOM      7  C   UNL     1      21.584  -0.180  53.991  0.00  0.00    +0.000 A 
ATOM      8  N   UNL     1      21.525  -1.143  54.926  0.00  0.00    +0.000 NA
ATOM      9  C   UNL     1      22.685  -1.642  55.356  0.00  0.00    +0.000 A 
ATOM     10  N   UNL     1      23.903  -1.272  54.945  0.00  0.00    +0.000 NA
ENDROOT
BRANCH   7  11
ATOM     11  N   UNL     1      20.379   0.413  53.522  0.00  0.00    +0.000 N 
ATOM     12  H   UNL     1      20.177   1.233  54.085  0.00  0.00    +0.000 HD
BRANCH  11  13
ATOM     13  C   UNL     1      19.191  -0.225  53.098  0.00  0.00    +0.000 A 
ATOM     14  C   UNL     1      18.442   0.356  52.062  0.00  0.00    +0.000 A 
ATOM     15  C   UNL     1      17.295  -0.265  51.561  0.00  0.00    +0.000 A 
ATOM     16  C   UNL     1      16.891  -1.495  52.074  0.00  0.00    +0.000 A 
ATOM     17  C   UNL     1      17.642  -2.107  53.077  0.00  0.00    +0.000 A 
ATOM     18  C   UNL     1      18.790  -1.480  53.574  0.00  0.00    +0.000 A 
BRANCH  17  19
ATOM     19  C   UNL     1      17.243  -3.382  53.590  0.00  0.00    +0.000 C 
ATOM     20  C   UNL     1      16.908  -4.453  54.019  0.00  0.00    +0.000 C 
ENDBRANCH  17  19
ENDBRANCH  11  13
ENDBRANCH   7  11
BRANCH   1  21
ATOM     21  O   UNL     1      24.443   2.611  51.047  0.00  0.00    +0.000 OA
BRANCH  21  22
ATOM     22  C   UNL     1      23.677   3.814  51.064  0.00  0.00    +0.000 C 
BRANCH  22  23
ATOM     23  C   UNL     1      22.766   3.906  49.840  0.00  0.00    +0.000 C 
BRANCH  23  25
ATOM     24  C   UNL     1      21.148   4.298  51.535  0.00  0.00    +0.000 C 
ATOM     25  O   UNL     1      21.383   3.899  50.191  0.00  0.00    +0.000 OA
ENDBRANCH  23  25
ENDBRANCH  22  23
ENDBRANCH  21  22
ENDBRANCH   1  21
BRANCH   2  26
ATOM     26  O   UNL     1      26.563   1.505  52.084  0.00  0.00    +0.000 OA
BRANCH  26  27
ATOM     27  C   UNL     1      27.751   0.984  52.676  0.00  0.00    +0.000 C 
BRANCH  27  28
ATOM     28  C   UNL     1      28.394   2.086  53.517  0.00  0.00    +0.000 C 
BRANCH  28  29
ATOM     29  O   UNL     1      29.031   1.569  54.686  0.00  0.00    +0.000 OA
ATOM     30  C   UNL     1      28.664   0.225  54.970  0.00  0.00    +0.000 C 
ENDBRANCH  28  29
ENDBRANCH  27  28
ENDBRANCH  26  27
ENDBRANCH   2  26
TORSDOF 11
ENDMDL
MODEL 7
REMARK VINA RESULT:    -6.671      0.997      1.267
REMARK INTER + INTRA:         -12.567
REMARK INTER:                 -11.200
REMARK INTRA:                  -1.366
REMARK UNBOUND:                -1.605
REMARK  Name = 
REMARK  13 active torsions:
REMARK  status: ('A' for Active; 'I' for Inactive)
REMARK    1  A    between atoms: C_1  and  O_2
REMARK    2  A    between atoms: O_2  and  C_3
REMARK    3  A    between atoms: C_3  and  C_4
REMARK    4  A    between atoms: C_4  and  O_5
REMARK    5  A    between atoms: O_5  and  C_6
REMARK    6  A    between atoms: C_7  and  O_25
REMARK    7  A    between atoms: C_12  and  N_16
REMARK    8  A    between atoms: N_16  and  C_17
REMARK    9  A    between atoms: C_21  and  C_23
REMARK   10  A    between atoms: O_25  and  C_26
REMARK   11  A    between atoms: C_26  and  C_27
REMARK   12  A    between atoms: C_27  and  O_28
REMARK   13  A    between atoms: O_28  and  C_29
REMARK                            x       y       z     vdW  Elec       q    Type
REMARK                         _______ _______ _______ _____ _____    ______ ____
ROOT
ATOM      1  C   UNL     1      24.959   1.133  53.071  0.00  0.00    +0.000 A 
ATOM      2  C   UNL     1      26.114   1.436  52.334  0.00  0.00    +0.000 A 
ATOM      3  C   UNL     1      26.047   2.386  51.308  0.00  0.00    +0.000 A 
ATOM      4  C   UNL     1      24.863   3.035  50.982  0.00  0.00    +0.000 A 
ATOM      5  C   UNL     1      23.700   2.726  51.696  0.00  0.00    +0.000 A 
ATOM      6  C   UNL     1      23.763   1.776  52.749  0.00  0.00    +0.000 A 
ATOM      7  C   UNL     1      22.538   3.420  51.297  0.00  0.00    +0.000 A 
ATOM      8  N   UNL     1      22.560   4.332  50.310  0.00  0.00    +0.000 NA
ATOM      9  C   UNL     1      23.732   4.544  49.708  0.00  0.00    +0.000 A 
ATOM     10  N   UNL     1      24.886   3.932  49.992  0.00  0.00    +0.000 NA
ENDROOT
BRANCH   7  11
ATOM     11  N   UNL     1      21.309   3.128  51.950  0.00  0.00    +0.000 N 
ATOM     12  H   UNL     1      21.472   3.083  52.951  0.00  0.00    +0.000 HD
BRANCH  11  13
ATOM     13  C   UNL     1      20.293   2.228  51.555  0.00  0.00    +0.000 A 
ATOM     14  C   UNL     1      19.797   2.297  50.243  0.00  0.00    +0.000 A 
ATOM     15  C   UNL     1      18.841   1.390  49.782  0.00  0.00    +0.000 A 
ATOM     16  C   UNL     1      18.381   0.377  50.621  0.00  0.00    +0.000 A 
ATOM     17  C   UNL     1      18.889   0.268  51.915  0.00  0.00    +0.000 A 
ATOM     18  C   UNL     1      19.847   1.180  52.371  0.00  0.00    +0.000 A 
BRANCH  17  19
ATOM     19  C   UNL     1      18.436  -0.785  52.773  0.00  0.00    +0.000 C 
ATOM     20  C   UNL     1      18.057  -1.669  53.491  0.00  0.00    +0.000 C 
ENDBRANCH  17  19
ENDBRANCH  11  13
ENDBRANCH   7  11
BRANCH   1  21
ATOM     21  O   UNL     1      25.104   0.193  54.059  0.00  0.00    +0.000 OA
BRANCH  21  22
ATOM     22  C   UNL     1      24.258  -0.955  54.060  0.00  0.00    +0.000 C 
BRANCH  22  23
ATOM     23  C   UNL     1      23.750  -1.264  55.468  0.00  0.00    +0.000 C 
BRANCH  23  25
ATOM     24  C   UNL     1      21.755  -1.547  54.208  0.00  0.00    +0.000 C 
ATOM     25  O   UNL     1      22.389  -1.696  55.471  0.00  0.00    +0.000 OA
ENDBRANCH  23  25
ENDBRANCH  22  23
ENDBRANCH  21  22
ENDBRANCH   1  21
BRANCH   2  26
ATOM     26  O   UNL     1      27.252   0.760  52.695  0.00  0.00    +0.000 OA
BRANCH  26  27
ATOM     27  C   UNL     1      28.269   1.481  53.387  0.00  0.00    +0.000 C 
BRANCH  27  28
ATOM     28  C   UNL     1      29.044   0.501  54.266  0.00  0.00    +0.000 C 
BRANCH  28  29
ATOM     29  O   UNL     1      28.575  -0.840  54.120  0.00  0.00    +0.000 OA
ATOM     30  C   UNL     1      29.514  -1.690  53.475  0.00  0.00    +0.000 C 
ENDBRANCH  28  29
ENDBRANCH  27  28
ENDBRANCH  26  27
ENDBRANCH   2  26
TORSDOF 11
ENDMDL
MODEL 8
REMARK VINA RESULT:    -6.650      2.341      6.611
REMARK INTER + INTRA:         -12.531
REMARK INTER:                 -11.331
REMARK INTRA:                  -1.200
REMARK UNBOUND:                -1.605
REMARK  Name = 
REMARK  13 active torsions:
REMARK  status: ('A' for Active; 'I' for Inactive)
REMARK    1  A    between atoms: C_1  and  O_2
REMARK    2  A    between atoms: O_2  and  C_3
REMARK    3  A    between atoms: C_3  and  C_4
REMARK    4  A    between atoms: C_4  and  O_5
REMARK    5  A    between atoms: O_5  and  C_6
REMARK    6  A    between atoms: C_7  and  O_25
REMARK    7  A    between atoms: C_12  and  N_16
REMARK    8  A    between atoms: N_16  and  C_17
REMARK    9  A    between atoms: C_21  and  C_23
REMARK   10  A    between atoms: O_25  and  C_26
REMARK   11  A    between atoms: C_26  and  C_27
REMARK   12  A    between atoms: C_27  and  O_28
REMARK   13  A    between atoms: O_28  and  C_29
REMARK                            x       y       z     vdW  Elec       q    Type
REMARK                         _______ _______ _______ _____ _____    ______ ____
ROOT
ATOM      1  C   UNL     1      24.618   2.400  53.152  0.00  0.00    +0.000 A 
ATOM      2  C   UNL     1      23.672   1.365  53.116  0.00  0.00    +0.000 A 
ATOM      3  C   UNL     1      22.404   1.609  52.575  0.00  0.00    +0.000 A 
ATOM      4  C   UNL     1      22.042   2.855  52.080  0.00  0.00    +0.000 A 
ATOM      5  C   UNL     1      22.971   3.901  52.129  0.00  0.00    +0.000 A 
ATOM      6  C   UNL     1      24.264   3.658  52.661  0.00  0.00    +0.000 A 
ATOM      7  C   UNL     1      22.522   5.137  51.617  0.00  0.00    +0.000 A 
ATOM      8  N   UNL     1      21.291   5.285  51.097  0.00  0.00    +0.000 NA
ATOM      9  C   UNL     1      20.499   4.211  51.102  0.00  0.00    +0.000 A 
ATOM     10  N   UNL     1      20.814   3.002  51.577  0.00  0.00    +0.000 NA
ENDROOT
BRANCH   7  11
ATOM     11  N   UNL     1      23.396   6.257  51.670  0.00  0.00    +0.000 N 
ATOM     12  H   UNL     1      22.938   7.007  52.178  0.00  0.00    +0.000 HD
BRANCH  11  13
ATOM     13  C   UNL     1      24.239   6.766  50.655  0.00  0.00    +0.000 A 
ATOM     14  C   UNL     1      24.041   8.083  50.207  0.00  0.00    +0.000 A 
ATOM     15  C   UNL     1      24.885   8.657  49.254  0.00  0.00    +0.000 A 
ATOM     16  C   UNL     1      25.962   7.930  48.750  0.00  0.00    +0.000 A 
ATOM     17  C   UNL     1      26.198   6.636  49.211  0.00  0.00    +0.000 A 
ATOM     18  C   UNL     1      25.349   6.066  50.166  0.00  0.00    +0.000 A 
BRANCH  17  19
ATOM     19  C   UNL     1      27.317   5.894  48.713  0.00  0.00    +0.000 C 
ATOM     20  C   UNL     1      28.256   5.274  48.295  0.00  0.00    +0.000 C 
ENDBRANCH  17  19
ENDBRANCH  11  13
ENDBRANCH   7  11
BRANCH   1  21
ATOM     21  O   UNL     1      25.836   2.084  53.696  0.00  0.00    +0.000 OA
BRANCH  21  22
ATOM     22  C   UNL     1      26.950   1.864  52.832  0.00  0.00    +0.000 C 
BRANCH  22  23
ATOM     23  C   UNL     1      28.269   2.171  53.543  0.00  0.00    +0.000 C 
BRANCH  23  25
ATOM     24  C   UNL     1      29.675   0.255  53.544  0.00  0.00    +0.000 C 
ATOM     25  O   UNL     1      28.759   1.053  54.283  0.00  0.00    +0.000 OA
ENDBRANCH  23  25
ENDBRANCH  22  23
ENDBRANCH  21  22
ENDBRANCH   1  21
BRANCH   2  26
ATOM     26  O   UNL     1      24.082   0.158  53.626  0.00  0.00    +0.000 OA
BRANCH  26  27
ATOM     27  C   UNL     1      23.189  -0.949  53.526  0.00  0.00    +0.000 C 
BRANCH  27  28
ATOM     28  C   UNL     1      22.632  -1.246  54.917  0.00  0.00    +0.000 C 
BRANCH  28  29
ATOM     29  O   UNL     1      21.263  -0.859  55.043  0.00  0.00    +0.000 OA
ATOM     30  C   UNL     1      20.460  -1.296  53.955  0.00  0.00    +0.000 C 
ENDBRANCH  28  29
ENDBRANCH  27  28
ENDBRANCH  26  27
ENDBRANCH   2  26
TORSDOF 11
ENDMDL
MODEL 9
REMARK VINA RESULT:    -6.628      2.967      7.013
REMARK INTER + INTRA:         -12.496
REMARK INTER:                 -11.193
REMARK INTRA:                  -1.303
REMARK UNBOUND:                -1.605
REMARK  Name = 
REMARK  13 active torsions:
REMARK  status: ('A' for Active; 'I' for Inactive)
REMARK    1  A    between atoms: C_1  and  O_2
REMARK    2  A    between atoms: O_2  and  C_3
REMARK    3  A    between atoms: C_3  and  C_4
REMARK    4  A    between atoms: C_4  and  O_5
REMARK    5  A    between atoms: O_5  and  C_6
REMARK    6  A    between atoms: C_7  and  O_25
REMARK    7  A    between atoms: C_12  and  N_16
REMARK    8  A    between atoms: N_16  and  C_17
REMARK    9  A    between atoms: C_21  and  C_23
REMARK   10  A    between atoms: O_25  and  C_26
REMARK   11  A    between atoms: C_26  and  C_27
REMARK   12  A    between atoms: C_27  and  O_28
REMARK   13  A    between atoms: O_28  and  C_29
REMARK                            x       y       z     vdW  Elec       q    Type
REMARK                         _______ _______ _______ _____ _____    ______ ____
ROOT
ATOM      1  C   UNL     1      22.624   1.913  51.192  0.00  0.00    +0.000 A 
ATOM      2  C   UNL     1      22.611   1.328  52.468  0.00  0.00    +0.000 A 
ATOM      3  C   UNL     1      23.809   1.206  53.182  0.00  0.00    +0.000 A 
ATOM      4  C   UNL     1      25.024   1.635  52.662  0.00  0.00    +0.000 A 
ATOM      5  C   UNL     1      25.052   2.201  51.382  0.00  0.00    +0.000 A 
ATOM      6  C   UNL     1      23.840   2.344  50.658  0.00  0.00    +0.000 A 
ATOM      7  C   UNL     1      26.325   2.601  50.922  0.00  0.00    +0.000 A 
ATOM      8  N   UNL     1      27.428   2.464  51.678  0.00  0.00    +0.000 NA
ATOM      9  C   UNL     1      27.271   1.916  52.884  0.00  0.00    +0.000 A 
ATOM     10  N   UNL     1      26.119   1.486  53.411  0.00  0.00    +0.000 NA
ENDROOT
BRANCH   7  11
ATOM     11  N   UNL     1      26.439   3.147  49.614  0.00  0.00    +0.000 N 
ATOM     12  H   UNL     1      27.013   2.529  49.049  0.00  0.00    +0.000 HD
BRANCH  11  13
ATOM     13  C   UNL     1      26.616   4.498  49.235  0.00  0.00    +0.000 A 
ATOM     14  C   UNL     1      27.832   4.884  48.649  0.00  0.00    +0.000 A 
ATOM     15  C   UNL     1      28.036   6.189  48.197  0.00  0.00    +0.000 A 
ATOM     16  C   UNL     1      27.012   7.129  48.301  0.00  0.00    +0.000 A 
ATOM     17  C   UNL     1      25.784   6.756  48.845  0.00  0.00    +0.000 A 
ATOM     18  C   UNL     1      25.586   5.445  49.296  0.00  0.00    +0.000 A 
BRANCH  17  19
ATOM     19  C   UNL     1      24.722   7.711  48.933  0.00  0.00    +0.000 C 
ATOM     20  C   UNL     1      23.830   8.511  49.006  0.00  0.00    +0.000 C 
ENDBRANCH  17  19
ENDBRANCH  11  13
ENDBRANCH   7  11
BRANCH   1  21
ATOM     21  O   UNL     1      21.413   1.997  50.556  0.00  0.00    +0.000 OA
BRANCH  21  22
ATOM     22  C   UNL     1      20.599   3.152  50.755  0.00  0.00    +0.000 C 
BRANCH  22  23
ATOM     23  C   UNL     1      20.772   4.153  49.612  0.00  0.00    +0.000 C 
BRANCH  23  25
ATOM     24  C   UNL     1      21.513   6.112  50.735  0.00  0.00    +0.000 C 
ATOM     25  O   UNL     1      21.851   5.058  49.843  0.00  0.00    +0.000 OA
ENDBRANCH  23  25
ENDBRANCH  22  23
ENDBRANCH  21  22
ENDBRANCH   1  21
BRANCH   2  26
ATOM     26  O   UNL     1      21.385   0.917  52.928  0.00  0.00    +0.000 OA
BRANCH  26  27
ATOM     27  C   UNL     1      21.321   0.323  54.223  0.00  0.00    +0.000 C 
BRANCH  27  28
ATOM     28  C   UNL     1      21.018  -1.165  54.057  0.00  0.00    +0.000 C 
BRANCH  28  29
ATOM     29  O   UNL     1      21.679  -1.962  55.040  0.00  0.00    +0.000 OA
ATOM     30  C   UNL     1      22.940  -1.434  55.428  0.00  0.00    +0.000 C 
ENDBRANCH  28  29
ENDBRANCH  27  28
ENDBRANCH  26  27
ENDBRANCH   2  26
TORSDOF 11
ENDMDL
