MODEL 1
REMARK VINA RESULT:    -7.326      0.000      0.000
REMARK INTER + INTRA:         -13.319
REMARK INTER:                 -12.037
REMARK INTRA:                  -1.282
REMARK UNBOUND:                -1.282
REMARK  Name = 
REMARK  13 active torsions:
REMARK  status: ('A' for Active; 'I' for Inactive)
REMARK    1  A    between atoms: C_1  and  O_2
REMARK    2  A    between atoms: O_2  and  C_3
REMARK    3  A    between atoms: C_3  and  C_4
REMARK    4  A    between atoms: C_4  and  O_5
REMARK    5  A    between atoms: O_5  and  C_6
REMARK    6  A    between atoms: C_7  and  O_25
REMARK    7  A    between atoms: C_12  and  N_16
REMARK    8  A    between atoms: N_16  and  C_17
REMARK    9  A    between atoms: C_21  and  C_23
REMARK   10  A    between atoms: O_25  and  C_26
REMARK   11  A    between atoms: C_26  and  C_27
REMARK   12  A    between atoms: C_27  and  O_28
REMARK   13  A    between atoms: O_28  and  C_29
REMARK                            x       y       z     vdW  Elec       q    Type
REMARK                         _______ _______ _______ _____ _____    ______ ____
ROOT
ATOM      1  C   UNL     1      22.646   1.768  51.276  0.00  0.00    +0.000 A 
ATOM      2  C   UNL     1      22.656   1.255  52.582  0.00  0.00    +0.000 A 
ATOM      3  C   UNL     1      23.859   1.213  53.297  0.00  0.00    +0.000 A 
ATOM      4  C   UNL     1      25.057   1.653  52.749  0.00  0.00    +0.000 A 
ATOM      5  C   UNL     1      25.064   2.149  51.441  0.00  0.00    +0.000 A 
ATOM      6  C   UNL     1      23.845   2.210  50.714  0.00  0.00    +0.000 A 
ATOM      7  C   UNL     1      26.321   2.565  50.954  0.00  0.00    +0.000 A 
ATOM      8  N   UNL     1      27.429   2.508  51.712  0.00  0.00    +0.000 NA
ATOM      9  C   UNL     1      27.293   2.021  52.947  0.00  0.00    +0.000 A 
ATOM     10  N   UNL     1      26.158   1.583  53.501  0.00  0.00    +0.000 NA
ENDROOT
BRANCH   7  11
ATOM     11  N   UNL     1      26.414   3.042  49.618  0.00  0.00    +0.000 N 
ATOM     12  H   UNL     1      26.986   2.399  49.079  0.00  0.00    +0.000 HD
BRANCH  11  13
ATOM     13  C   UNL     1      26.575   4.372  49.166  0.00  0.00    +0.000 A 
ATOM     14  C   UNL     1      25.540   5.295  49.390  0.00  0.00    +0.000 A 
ATOM     15  C   UNL     1      25.673   6.635  49.022  0.00  0.00    +0.000 A 
ATOM     16  C   UNL     1      26.859   7.084  48.446  0.00  0.00    +0.000 A 
ATOM     17  C   UNL     1      27.913   6.193  48.250  0.00  0.00    +0.000 A 
ATOM     18  C   UNL     1      27.774   4.850  48.621  0.00  0.00    +0.000 A 
BRANCH  17  19
ATOM     19  C   UNL     1      29.142   6.654  47.680  0.00  0.00    +0.000 C 
ATOM     20  C   UNL     1      30.174   7.040  47.202  0.00  0.00    +0.000 C 
ENDBRANCH  17  19
ENDBRANCH  11  13
ENDBRANCH   7  11
BRANCH   1  21
ATOM     21  O   UNL     1      21.432   1.777  50.641  0.00  0.00    +0.000 OA
BRANCH  21  22
ATOM     22  C   UNL     1      20.859   3.023  50.247  0.00  0.00    +0.000 C 
BRANCH  22  23
ATOM     23  C   UNL     1      20.602   3.920  51.457  0.00  0.00    +0.000 C 
BRANCH  23  25
ATOM     24  C   UNL     1      18.374   3.101  51.562  0.00  0.00    +0.000 C 
ATOM     25  O   UNL     1      19.553   3.423  52.288  0.00  0.00    +0.000 OA
ENDBRANCH  23  25
ENDBRANCH  22  23
ENDBRANCH  21  22
ENDBRANCH   1  21
BRANCH   2  26
ATOM     26  O   UNL     1      21.445   0.828  53.068  0.00  0.00    +0.000 OA
BRANCH  26  27
ATOM     27  C   UNL     1      21.418   0.225  54.360  0.00  0.00    +0.000 C 
BRANCH  27  28
ATOM     28  C   UNL     1      21.089  -1.257  54.194  0.00  0.00    +0.000 C 
BRANCH  28  29
ATOM     29  O   UNL     1      21.859  -2.082  55.068  0.00  0.00    +0.000 OA
ATOM     30  C   UNL     1      23.081  -1.477  55.469  0.00  0.00    +0.000 C 
ENDBRANCH  28  29
ENDBRANCH  27  28
ENDBRANCH  26  27
ENDBRANCH   2  26
TORSDOF 11
ENDMDL
MODEL 2
REMARK VINA RESULT:    -7.142      0.589      1.805
REMARK INTER + INTRA:         -13.016
REMARK INTER:                 -11.820
REMARK INTRA:                  -1.196
REMARK UNBOUND:                -1.282
REMARK  Name = 
REMARK  13 active torsions:
REMARK  status: ('A' for Active; 'I' for Inactive)
REMARK    1  A    between atoms: C_1  and  O_2
REMARK    2  A    between atoms: O_2  and  C_3
REMARK    3  A    between atoms: C_3  and  C_4
REMARK    4  A    between atoms: C_4  and  O_5
REMARK    5  A    between atoms: O_5  and  C_6
REMARK    6  A    between atoms: C_7  and  O_25
REMARK    7  A    between atoms: C_12  and  N_16
REMARK    8  A    between atoms: N_16  and  C_17
REMARK    9  A    between atoms: C_21  and  C_23
REMARK   10  A    between atoms: O_25  and  C_26
REMARK   11  A    between atoms: C_26  and  C_27
REMARK   12  A    between atoms: C_27  and  O_28
REMARK   13  A    between atoms: O_28  and  C_29
REMARK                            x       y       z     vdW  Elec       q    Type
REMARK                         _______ _______ _______ _____ _____    ______ ____
ROOT
ATOM      1  C   UNL     1      22.651   1.659  51.266  0.00  0.00    +0.000 A 
ATOM      2  C   UNL     1      22.658   1.055  52.532  0.00  0.00    +0.000 A 
ATOM      3  C   UNL     1      23.857   0.973  53.249  0.00  0.00    +0.000 A 
ATOM      4  C   UNL     1      25.054   1.461  52.742  0.00  0.00    +0.000 A 
ATOM      5  C   UNL     1      25.063   2.048  51.471  0.00  0.00    +0.000 A 
ATOM      6  C   UNL     1      23.849   2.150  50.743  0.00  0.00    +0.000 A 
ATOM      7  C   UNL     1      26.320   2.509  51.022  0.00  0.00    +0.000 A 
ATOM      8  N   UNL     1      27.424   2.408  51.782  0.00  0.00    +0.000 NA
ATOM      9  C   UNL     1      27.286   1.834  52.978  0.00  0.00    +0.000 A 
ATOM     10  N   UNL     1      26.152   1.348  53.493  0.00  0.00    +0.000 NA
ENDROOT
BRANCH   7  11
ATOM     11  N   UNL     1      26.415   3.080  49.724  0.00  0.00    +0.000 N 
ATOM     12  H   UNL     1      26.983   2.473  49.140  0.00  0.00    +0.000 HD
BRANCH  11  13
ATOM     13  C   UNL     1      26.584   4.437  49.368  0.00  0.00    +0.000 A 
ATOM     14  C   UNL     1      27.731   4.813  48.651  0.00  0.00    +0.000 A 
ATOM     15  C   UNL     1      27.916   6.128  48.218  0.00  0.00    +0.000 A 
ATOM     16  C   UNL     1      26.939   7.088  48.474  0.00  0.00    +0.000 A 
ATOM     17  C   UNL     1      25.775   6.727  49.150  0.00  0.00    +0.000 A 
ATOM     18  C   UNL     1      25.596   5.407  49.581  0.00  0.00    +0.000 A 
BRANCH  17  19
ATOM     19  C   UNL     1      24.759   7.704  49.394  0.00  0.00    +0.000 C 
ATOM     20  C   UNL     1      23.905   8.524  49.600  0.00  0.00    +0.000 C 
ENDBRANCH  17  19
ENDBRANCH  11  13
ENDBRANCH   7  11
BRANCH   1  21
ATOM     21  O   UNL     1      21.439   1.701  50.625  0.00  0.00    +0.000 OA
BRANCH  21  22
ATOM     22  C   UNL     1      20.844   2.966  50.341  0.00  0.00    +0.000 C 
BRANCH  22  23
ATOM     23  C   UNL     1      20.636   3.778  51.619  0.00  0.00    +0.000 C 
BRANCH  23  25
ATOM     24  C   UNL     1      18.338   3.197  51.454  0.00  0.00    +0.000 C 
ATOM     25  O   UNL     1      19.450   3.398  52.316  0.00  0.00    +0.000 OA
ENDBRANCH  23  25
ENDBRANCH  22  23
ENDBRANCH  21  22
ENDBRANCH   1  21
BRANCH   2  26
ATOM     26  O   UNL     1      21.449   0.584  52.980  0.00  0.00    +0.000 OA
BRANCH  26  27
ATOM     27  C   UNL     1      21.378   0.085  54.314  0.00  0.00    +0.000 C 
BRANCH  27  28
ATOM     28  C   UNL     1      21.333  -1.441  54.256  0.00  0.00    +0.000 C 
BRANCH  28  29
ATOM     29  O   UNL     1      22.052  -2.043  55.333  0.00  0.00    +0.000 OA
ATOM     30  C   UNL     1      23.328  -1.454  55.546  0.00  0.00    +0.000 C 
ENDBRANCH  28  29
ENDBRANCH  27  28
ENDBRANCH  26  27
ENDBRANCH   2  26
TORSDOF 11
ENDMDL
MODEL 3
REMARK VINA RESULT:    -7.031      2.804      6.926
REMARK INTER + INTRA:         -12.833
REMARK INTER:                 -11.272
REMARK INTRA:                  -1.562
REMARK UNBOUND:                -1.282
REMARK  Name = 
REMARK  13 active torsions:
REMARK  status: ('A' for Active; 'I' for Inactive)
REMARK    1  A    between atoms: C_1  and  O_2
REMARK    2  A    between atoms: O_2  and  C_3
REMARK    3  A    between atoms: C_3  and  C_4
REMARK    4  A    between atoms: C_4  and  O_5
REMARK    5  A    between atoms: O_5  and  C_6
REMARK    6  A    between atoms: C_7  and  O_25
REMARK    7  A    between atoms: C_12  and  N_16
REMARK    8  A    between atoms: N_16  and  C_17
REMARK    9  A    between atoms: C_21  and  C_23
REMARK   10  A    between atoms: O_25  and  C_26
REMARK   11  A    between atoms: C_26  and  C_27
REMARK   12  A    between atoms: C_27  and  O_28
REMARK   13  A    between atoms: O_28  and  C_29
REMARK                            x       y       z     vdW  Elec       q    Type
REMARK                         _______ _______ _______ _____ _____    ______ ____
ROOT
ATOM      1  C   UNL     1      24.974   0.221  52.820  0.00  0.00    +0.000 A 
ATOM      2  C   UNL     1      26.278   0.335  52.313  0.00  0.00    +0.000 A 
ATOM      3  C   UNL     1      26.620   1.449  51.537  0.00  0.00    +0.000 A 
ATOM      4  C   UNL     1      25.703   2.448  51.239  0.00  0.00    +0.000 A 
ATOM      5  C   UNL     1      24.395   2.336  51.723  0.00  0.00    +0.000 A 
ATOM      6  C   UNL     1      24.043   1.218  52.524  0.00  0.00    +0.000 A 
ATOM      7  C   UNL     1      23.522   3.386  51.367  0.00  0.00    +0.000 A 
ATOM      8  N   UNL     1      23.934   4.433  50.631  0.00  0.00    +0.000 NA
ATOM      9  C   UNL     1      25.208   4.428  50.233  0.00  0.00    +0.000 A 
ATOM     10  N   UNL     1      26.113   3.480  50.496  0.00  0.00    +0.000 NA
ENDROOT
BRANCH   7  11
ATOM     11  N   UNL     1      22.165   3.321  51.788  0.00  0.00    +0.000 N 
ATOM     12  H   UNL     1      22.140   3.255  52.801  0.00  0.00    +0.000 HD
BRANCH  11  13
ATOM     13  C   UNL     1      21.094   2.610  51.201  0.00  0.00    +0.000 A 
ATOM     14  C   UNL     1      20.824   2.795  49.835  0.00  0.00    +0.000 A 
ATOM     15  C   UNL     1      19.820   2.070  49.190  0.00  0.00    +0.000 A 
ATOM     16  C   UNL     1      19.081   1.125  49.899  0.00  0.00    +0.000 A 
ATOM     17  C   UNL     1      19.358   0.899  51.246  0.00  0.00    +0.000 A 
ATOM     18  C   UNL     1      20.367   1.628  51.886  0.00  0.00    +0.000 A 
BRANCH  17  19
ATOM     19  C   UNL     1      18.618  -0.088  51.971  0.00  0.00    +0.000 C 
ATOM     20  C   UNL     1      17.997  -0.917  52.579  0.00  0.00    +0.000 C 
ENDBRANCH  17  19
ENDBRANCH  11  13
ENDBRANCH   7  11
BRANCH   1  21
ATOM     21  O   UNL     1      24.716  -0.897  53.570  0.00  0.00    +0.000 OA
BRANCH  21  22
ATOM     22  C   UNL     1      24.496  -0.761  54.973  0.00  0.00    +0.000 C 
BRANCH  22  23
ATOM     23  C   UNL     1      23.335  -1.640  55.438  0.00  0.00    +0.000 C 
BRANCH  23  25
ATOM     24  C   UNL     1      21.315  -1.294  54.235  0.00  0.00    +0.000 C 
ATOM     25  O   UNL     1      22.083  -0.958  55.384  0.00  0.00    +0.000 OA
ENDBRANCH  23  25
ENDBRANCH  22  23
ENDBRANCH  21  22
ENDBRANCH   1  21
BRANCH   2  26
ATOM     26  O   UNL     1      27.138  -0.686  52.633  0.00  0.00    +0.000 OA
BRANCH  26  27
ATOM     27  C   UNL     1      28.387  -0.345  53.232  0.00  0.00    +0.000 C 
BRANCH  27  28
ATOM     28  C   UNL     1      28.132   0.049  54.686  0.00  0.00    +0.000 C 
BRANCH  28  29
ATOM     29  O   UNL     1      28.921   1.170  55.087  0.00  0.00    +0.000 OA
ATOM     30  C   UNL     1      29.038   2.157  54.071  0.00  0.00    +0.000 C 
ENDBRANCH  28  29
ENDBRANCH  27  28
ENDBRANCH  26  27
ENDBRANCH   2  26
TORSDOF 11
ENDMDL
MODEL 4
REMARK VINA RESULT:    -7.013      3.848      5.539
REMARK INTER + INTRA:         -12.805
REMARK INTER:                 -11.897
REMARK INTRA:                  -0.908
REMARK UNBOUND:                -1.282
REMARK  Name = 
REMARK  13 active torsions:
REMARK  status: ('A' for Active; 'I' for Inactive)
REMARK    1  A    between atoms: C_1  and  O_2
REMARK    2  A    between atoms: O_2  and  C_3
REMARK    3  A    between atoms: C_3  and  C_4
REMARK    4  A    between atoms: C_4  and  O_5
REMARK    5  A    between atoms: O_5  and  C_6
REMARK    6  A    between atoms: C_7  and  O_25
REMARK    7  A    between atoms: C_12  and  N_16
REMARK    8  A    between atoms: N_16  and  C_17
REMARK    9  A    between atoms: C_21  and  C_23
REMARK   10  A    between atoms: O_25  and  C_26
REMARK   11  A    between atoms: C_26  and  C_27
REMARK   12  A    between atoms: C_27  and  O_28
REMARK   13  A    between atoms: O_28  and  C_29
REMARK                            x       y       z     vdW  Elec       q    Type
REMARK                         _______ _______ _______ _____ _____    ______ ____
ROOT
ATOM      1  C   UNL     1      20.704   0.587  52.029  0.00  0.00    +0.000 A 
ATOM      2  C   UNL     1      19.857  -0.121  52.895  0.00  0.00    +0.000 A 
ATOM      3  C   UNL     1      20.407  -0.821  53.976  0.00  0.00    +0.000 A 
ATOM      4  C   UNL     1      21.775  -0.851  54.215  0.00  0.00    +0.000 A 
ATOM      5  C   UNL     1      22.631  -0.164  53.347  0.00  0.00    +0.000 A 
ATOM      6  C   UNL     1      22.081   0.562  52.258  0.00  0.00    +0.000 A 
ATOM      7  C   UNL     1      24.006  -0.252  53.652  0.00  0.00    +0.000 A 
ATOM      8  N   UNL     1      24.453  -0.933  54.721  0.00  0.00    +0.000 NA
ATOM      9  C   UNL     1      23.537  -1.541  55.478  0.00  0.00    +0.000 A 
ATOM     10  N   UNL     1      22.216  -1.539  55.271  0.00  0.00    +0.000 NA
ENDROOT
BRANCH   7  11
ATOM     11  N   UNL     1      24.940   0.385  52.791  0.00  0.00    +0.000 N 
ATOM     12  H   UNL     1      24.802   0.041  51.845  0.00  0.00    +0.000 HD
BRANCH  11  13
ATOM     13  C   UNL     1      26.300   0.686  53.033  0.00  0.00    +0.000 A 
ATOM     14  C   UNL     1      26.675   2.025  53.230  0.00  0.00    +0.000 A 
ATOM     15  C   UNL     1      27.992   2.370  53.538  0.00  0.00    +0.000 A 
ATOM     16  C   UNL     1      28.957   1.375  53.679  0.00  0.00    +0.000 A 
ATOM     17  C   UNL     1      28.598   0.037  53.525  0.00  0.00    +0.000 A 
ATOM     18  C   UNL     1      27.276  -0.303  53.217  0.00  0.00    +0.000 A 
BRANCH  17  19
ATOM     19  C   UNL     1      29.581  -0.990  53.692  0.00  0.00    +0.000 C 
ATOM     20  C   UNL     1      30.405  -1.852  53.830  0.00  0.00    +0.000 C 
ENDBRANCH  17  19
ENDBRANCH  11  13
ENDBRANCH   7  11
BRANCH   1  21
ATOM     21  O   UNL     1      20.092   1.248  50.996  0.00  0.00    +0.000 OA
BRANCH  21  22
ATOM     22  C   UNL     1      20.596   2.516  50.582  0.00  0.00    +0.000 C 
BRANCH  22  23
ATOM     23  C   UNL     1      19.741   3.657  51.133  0.00  0.00    +0.000 C 
BRANCH  23  25
ATOM     24  C   UNL     1      17.403   3.621  51.558  0.00  0.00    +0.000 C 
ATOM     25  O   UNL     1      18.690   3.187  51.977  0.00  0.00    +0.000 OA
ENDBRANCH  23  25
ENDBRANCH  22  23
ENDBRANCH  21  22
ENDBRANCH   1  21
BRANCH   2  26
ATOM     26  O   UNL     1      18.517  -0.063  52.606  0.00  0.00    +0.000 OA
BRANCH  26  27
ATOM     27  C   UNL     1      17.704  -1.176  52.971  0.00  0.00    +0.000 C 
BRANCH  27  28
ATOM     28  C   UNL     1      16.321  -0.988  52.350  0.00  0.00    +0.000 C 
BRANCH  28  29
ATOM     29  O   UNL     1      15.991   0.390  52.176  0.00  0.00    +0.000 OA
ATOM     30  C   UNL     1      14.797   0.764  52.852  0.00  0.00    +0.000 C 
ENDBRANCH  28  29
ENDBRANCH  27  28
ENDBRANCH  26  27
ENDBRANCH   2  26
TORSDOF 11
ENDMDL
MODEL 5
REMARK VINA RESULT:    -6.992      3.349      6.054
REMARK INTER + INTRA:         -12.769
REMARK INTER:                 -11.917
REMARK INTRA:                  -0.853
REMARK UNBOUND:                -1.282
REMARK  Name = 
REMARK  13 active torsions:
REMARK  status: ('A' for Active; 'I' for Inactive)
REMARK    1  A    between atoms: C_1  and  O_2
REMARK    2  A    between atoms: O_2  and  C_3
REMARK    3  A    between atoms: C_3  and  C_4
REMARK    4  A    between atoms: C_4  and  O_5
REMARK    5  A    between atoms: O_5  and  C_6
REMARK    6  A    between atoms: C_7  and  O_25
REMARK    7  A    between atoms: C_12  and  N_16
REMARK    8  A    between atoms: N_16  and  C_17
REMARK    9  A    between atoms: C_21  and  C_23
REMARK   10  A    between atoms: O_25  and  C_26
REMARK   11  A    between atoms: C_26  and  C_27
REMARK   12  A    between atoms: C_27  and  O_28
REMARK   13  A    between atoms: O_28  and  C_29
REMARK                            x       y       z     vdW  Elec       q    Type
REMARK                         _______ _______ _______ _____ _____    ______ ____
ROOT
ATOM      1  C   UNL     1      25.121   0.810  52.545  0.00  0.00    +0.000 A 
ATOM      2  C   UNL     1      25.415  -0.167  53.508  0.00  0.00    +0.000 A 
ATOM      3  C   UNL     1      24.368  -0.821  54.168  0.00  0.00    +0.000 A 
ATOM      4  C   UNL     1      23.036  -0.524  53.911  0.00  0.00    +0.000 A 
ATOM      5  C   UNL     1      22.730   0.464  52.967  0.00  0.00    +0.000 A 
ATOM      6  C   UNL     1      23.785   1.120  52.281  0.00  0.00    +0.000 A 
ATOM      7  C   UNL     1      21.355   0.715  52.773  0.00  0.00    +0.000 A 
ATOM      8  N   UNL     1      20.408   0.029  53.436  0.00  0.00    +0.000 NA
ATOM      9  C   UNL     1      20.825  -0.892  54.306  0.00  0.00    +0.000 A 
ATOM     10  N   UNL     1      22.098  -1.197  54.582  0.00  0.00    +0.000 NA
ENDROOT
BRANCH   7  11
ATOM     11  N   UNL     1      20.968   1.733  51.859  0.00  0.00    +0.000 N 
ATOM     12  H   UNL     1      19.957   1.820  51.874  0.00  0.00    +0.000 HD
BRANCH  11  13
ATOM     13  C   UNL     1      21.487   2.006  50.572  0.00  0.00    +0.000 A 
ATOM     14  C   UNL     1      21.319   1.051  49.557  0.00  0.00    +0.000 A 
ATOM     15  C   UNL     1      21.753   1.297  48.252  0.00  0.00    +0.000 A 
ATOM     16  C   UNL     1      22.343   2.519  47.935  0.00  0.00    +0.000 A 
ATOM     17  C   UNL     1      22.484   3.496  48.920  0.00  0.00    +0.000 A 
ATOM     18  C   UNL     1      22.046   3.243  50.225  0.00  0.00    +0.000 A 
BRANCH  17  19
ATOM     19  C   UNL     1      23.068   4.761  48.593  0.00  0.00    +0.000 C 
ATOM     20  C   UNL     1      23.558   5.822  48.320  0.00  0.00    +0.000 C 
ENDBRANCH  17  19
ENDBRANCH  11  13
ENDBRANCH   7  11
BRANCH   1  21
ATOM     21  O   UNL     1      26.199   1.405  51.942  0.00  0.00    +0.000 OA
BRANCH  21  22
ATOM     22  C   UNL     1      26.110   2.772  51.544  0.00  0.00    +0.000 C 
BRANCH  22  23
ATOM     23  C   UNL     1      26.231   2.915  50.027  0.00  0.00    +0.000 C 
BRANCH  23  25
ATOM     24  C   UNL     1      27.038   4.826  48.867  0.00  0.00    +0.000 C 
ATOM     25  O   UNL     1      27.372   3.683  49.644  0.00  0.00    +0.000 OA
ENDBRANCH  23  25
ENDBRANCH  22  23
ENDBRANCH  21  22
ENDBRANCH   1  21
BRANCH   2  26
ATOM     26  O   UNL     1      26.748  -0.414  53.725  0.00  0.00    +0.000 OA
BRANCH  26  27
ATOM     27  C   UNL     1      27.344   0.122  54.905  0.00  0.00    +0.000 C 
BRANCH  27  28
ATOM     28  C   UNL     1      28.839   0.304  54.649  0.00  0.00    +0.000 C 
BRANCH  28  29
ATOM     29  O   UNL     1      29.259   1.654  54.849  0.00  0.00    +0.000 OA
ATOM     30  C   UNL     1      28.948   2.501  53.750  0.00  0.00    +0.000 C 
ENDBRANCH  28  29
ENDBRANCH  27  28
ENDBRANCH  26  27
ENDBRANCH   2  26
TORSDOF 11
ENDMDL
MODEL 6
REMARK VINA RESULT:    -6.985      3.533      8.386
REMARK INTER + INTRA:         -12.758
REMARK INTER:                 -11.916
REMARK INTRA:                  -0.843
REMARK UNBOUND:                -1.282
REMARK  Name = 
REMARK  13 active torsions:
REMARK  status: ('A' for Active; 'I' for Inactive)
REMARK    1  A    between atoms: C_1  and  O_2
REMARK    2  A    between atoms: O_2  and  C_3
REMARK    3  A    between atoms: C_3  and  C_4
REMARK    4  A    between atoms: C_4  and  O_5
REMARK    5  A    between atoms: O_5  and  C_6
REMARK    6  A    between atoms: C_7  and  O_25
REMARK    7  A    between atoms: C_12  and  N_16
REMARK    8  A    between atoms: N_16  and  C_17
REMARK    9  A    between atoms: C_21  and  C_23
REMARK   10  A    between atoms: O_25  and  C_26
REMARK   11  A    between atoms: C_26  and  C_27
REMARK   12  A    between atoms: C_27  and  O_28
REMARK   13  A    between atoms: O_28  and  C_29
REMARK                            x       y       z     vdW  Elec       q    Type
REMARK                         _______ _______ _______ _____ _____    ______ ____
ROOT
ATOM      1  C   UNL     1      24.004   1.439  51.771  0.00  0.00    +0.000 A 
ATOM      2  C   UNL     1      25.176   0.862  52.282  0.00  0.00    +0.000 A 
ATOM      3  C   UNL     1      25.089  -0.056  53.335  0.00  0.00    +0.000 A 
ATOM      4  C   UNL     1      23.874  -0.410  53.906  0.00  0.00    +0.000 A 
ATOM      5  C   UNL     1      22.699   0.174  53.417  0.00  0.00    +0.000 A 
ATOM      6  C   UNL     1      22.776   1.094  52.339  0.00  0.00    +0.000 A 
ATOM      7  C   UNL     1      21.507  -0.229  54.057  0.00  0.00    +0.000 A 
ATOM      8  N   UNL     1      21.507  -1.132  55.053  0.00  0.00    +0.000 NA
ATOM      9  C   UNL     1      22.691  -1.621  55.426  0.00  0.00    +0.000 A 
ATOM     10  N   UNL     1      23.878  -1.297  54.904  0.00  0.00    +0.000 NA
ENDROOT
BRANCH   7  11
ATOM     11  N   UNL     1      20.278   0.353  53.643  0.00  0.00    +0.000 N 
ATOM     12  H   UNL     1      20.037   1.102  54.284  0.00  0.00    +0.000 HD
BRANCH  11  13
ATOM     13  C   UNL     1      19.120  -0.292  53.150  0.00  0.00    +0.000 A 
ATOM     14  C   UNL     1      18.440   0.276  52.060  0.00  0.00    +0.000 A 
ATOM     15  C   UNL     1      17.329  -0.353  51.493  0.00  0.00    +0.000 A 
ATOM     16  C   UNL     1      16.894  -1.579  51.993  0.00  0.00    +0.000 A 
ATOM     17  C   UNL     1      17.578  -2.178  53.049  0.00  0.00    +0.000 A 
ATOM     18  C   UNL     1      18.691  -1.542  53.613  0.00  0.00    +0.000 A 
BRANCH  17  19
ATOM     19  C   UNL     1      17.149  -3.447  53.550  0.00  0.00    +0.000 C 
ATOM     20  C   UNL     1      16.790  -4.513  53.971  0.00  0.00    +0.000 C 
ENDBRANCH  17  19
ENDBRANCH  11  13
ENDBRANCH   7  11
BRANCH   1  21
ATOM     21  O   UNL     1      24.170   2.328  50.741  0.00  0.00    +0.000 OA
BRANCH  21  22
ATOM     22  C   UNL     1      23.435   3.550  50.748  0.00  0.00    +0.000 C 
BRANCH  22  23
ATOM     23  C   UNL     1      23.787   4.397  51.972  0.00  0.00    +0.000 C 
BRANCH  23  25
ATOM     24  C   UNL     1      24.615   6.115  50.553  0.00  0.00    +0.000 C 
ATOM     25  O   UNL     1      23.805   5.794  51.677  0.00  0.00    +0.000 OA
ENDBRANCH  23  25
ENDBRANCH  22  23
ENDBRANCH  21  22
ENDBRANCH   1  21
BRANCH   2  26
ATOM     26  O   UNL     1      26.348   1.254  51.685  0.00  0.00    +0.000 OA
BRANCH  26  27
ATOM     27  C   UNL     1      27.106   2.286  52.312  0.00  0.00    +0.000 C 
BRANCH  27  28
ATOM     28  C   UNL     1      28.288   1.644  53.038  0.00  0.00    +0.000 C 
BRANCH  28  29
ATOM     29  O   UNL     1      28.000   1.387  54.413  0.00  0.00    +0.000 OA
ATOM     30  C   UNL     1      28.579   0.177  54.884  0.00  0.00    +0.000 C 
ENDBRANCH  28  29
ENDBRANCH  27  28
ENDBRANCH  26  27
ENDBRANCH   2  26
TORSDOF 11
ENDMDL
MODEL 7
REMARK VINA RESULT:    -6.962      2.344      5.660
REMARK INTER + INTRA:         -12.721
REMARK INTER:                 -11.355
REMARK INTRA:                  -1.365
REMARK UNBOUND:                -1.282
REMARK  Name = 
REMARK  13 active torsions:
REMARK  status: ('A' for Active; 'I' for Inactive)
REMARK    1  A    between atoms: C_1  and  O_2
REMARK    2  A    between atoms: O_2  and  C_3
REMARK    3  A    between atoms: C_3  and  C_4
REMARK    4  A    between atoms: C_4  and  O_5
REMARK    5  A    between atoms: O_5  and  C_6
REMARK    6  A    between atoms: C_7  and  O_25
REMARK    7  A    between atoms: C_12  and  N_16
REMARK    8  A    between atoms: N_16  and  C_17
REMARK    9  A    between atoms: C_21  and  C_23
REMARK   10  A    between atoms: O_25  and  C_26
REMARK   11  A    between atoms: C_26  and  C_27
REMARK   12  A    between atoms: C_27  and  O_28
REMARK   13  A    between atoms: O_28  and  C_29
REMARK                            x       y       z     vdW  Elec       q    Type
REMARK                         _______ _______ _______ _____ _____    ______ ____
ROOT
ATOM      1  C   UNL     1      22.059   0.941  51.521  0.00  0.00    +0.000 A 
ATOM      2  C   UNL     1      21.576   1.359  50.271  0.00  0.00    +0.000 A 
ATOM      3  C   UNL     1      22.356   2.213  49.482  0.00  0.00    +0.000 A 
ATOM      4  C   UNL     1      23.596   2.676  49.903  0.00  0.00    +0.000 A 
ATOM      5  C   UNL     1      24.079   2.283  51.156  0.00  0.00    +0.000 A 
ATOM      6  C   UNL     1      23.302   1.404  51.955  0.00  0.00    +0.000 A 
ATOM      7  C   UNL     1      25.340   2.805  51.514  0.00  0.00    +0.000 A 
ATOM      8  N   UNL     1      26.035   3.608  50.690  0.00  0.00    +0.000 NA
ATOM      9  C   UNL     1      25.471   3.907  49.518  0.00  0.00    +0.000 A 
ATOM     10  N   UNL     1      24.278   3.484  49.087  0.00  0.00    +0.000 NA
ENDROOT
BRANCH   7  11
ATOM     11  N   UNL     1      25.877   2.482  52.790  0.00  0.00    +0.000 N 
ATOM     12  H   UNL     1      25.737   3.271  53.414  0.00  0.00    +0.000 HD
BRANCH  11  13
ATOM     13  C   UNL     1      27.075   1.795  53.094  0.00  0.00    +0.000 A 
ATOM     14  C   UNL     1      28.133   2.505  53.685  0.00  0.00    +0.000 A 
ATOM     15  C   UNL     1      29.313   1.863  54.065  0.00  0.00    +0.000 A 
ATOM     16  C   UNL     1      29.445   0.488  53.884  0.00  0.00    +0.000 A 
ATOM     17  C   UNL     1      28.392  -0.242  53.335  0.00  0.00    +0.000 A 
ATOM     18  C   UNL     1      27.211   0.408  52.956  0.00  0.00    +0.000 A 
BRANCH  17  19
ATOM     19  C   UNL     1      28.515  -1.658  53.169  0.00  0.00    +0.000 C 
ATOM     20  C   UNL     1      28.616  -2.847  53.031  0.00  0.00    +0.000 C 
ENDBRANCH  17  19
ENDBRANCH  11  13
ENDBRANCH   7  11
BRANCH   1  21
ATOM     21  O   UNL     1      21.239   0.106  52.235  0.00  0.00    +0.000 OA
BRANCH  21  22
ATOM     22  C   UNL     1      20.520   0.622  53.353  0.00  0.00    +0.000 C 
BRANCH  22  23
ATOM     23  C   UNL     1      21.107   0.112  54.669  0.00  0.00    +0.000 C 
BRANCH  23  25
ATOM     24  C   UNL     1      22.794  -1.450  55.271  0.00  0.00    +0.000 C 
ATOM     25  O   UNL     1      21.578  -1.232  54.568  0.00  0.00    +0.000 OA
ENDBRANCH  23  25
ENDBRANCH  22  23
ENDBRANCH  21  22
ENDBRANCH   1  21
BRANCH   2  26
ATOM     26  O   UNL     1      20.343   0.876  49.911  0.00  0.00    +0.000 OA
BRANCH  26  27
ATOM     27  C   UNL     1      19.323   1.819  49.590  0.00  0.00    +0.000 C 
BRANCH  27  28
ATOM     28  C   UNL     1      17.991   1.286  50.115  0.00  0.00    +0.000 C 
BRANCH  28  29
ATOM     29  O   UNL     1      18.049  -0.109  50.414  0.00  0.00    +0.000 OA
ATOM     30  C   UNL     1      17.517  -0.425  51.695  0.00  0.00    +0.000 C 
ENDBRANCH  28  29
ENDBRANCH  27  28
ENDBRANCH  26  27
ENDBRANCH   2  26
TORSDOF 11
ENDMDL
MODEL 8
REMARK VINA RESULT:    -6.912      2.263      4.282
REMARK INTER + INTRA:         -12.639
REMARK INTER:                 -11.378
REMARK INTRA:                  -1.261
REMARK UNBOUND:                -1.282
REMARK  Name = 
REMARK  13 active torsions:
REMARK  status: ('A' for Active; 'I' for Inactive)
REMARK    1  A    between atoms: C_1  and  O_2
REMARK    2  A    between atoms: O_2  and  C_3
REMARK    3  A    between atoms: C_3  and  C_4
REMARK    4  A    between atoms: C_4  and  O_5
REMARK    5  A    between atoms: O_5  and  C_6
REMARK    6  A    between atoms: C_7  and  O_25
REMARK    7  A    between atoms: C_12  and  N_16
REMARK    8  A    between atoms: N_16  and  C_17
REMARK    9  A    between atoms: C_21  and  C_23
REMARK   10  A    between atoms: O_25  and  C_26
REMARK   11  A    between atoms: C_26  and  C_27
REMARK   12  A    between atoms: C_27  and  O_28
REMARK   13  A    between atoms: O_28  and  C_29
REMARK                            x       y       z     vdW  Elec       q    Type
REMARK                         _______ _______ _______ _____ _____    ______ ____
ROOT
ATOM      1  C   UNL     1      24.883   1.804  52.954  0.00  0.00    +0.000 A 
ATOM      2  C   UNL     1      23.861   0.878  52.694  0.00  0.00    +0.000 A 
ATOM      3  C   UNL     1      23.075   1.024  51.545  0.00  0.00    +0.000 A 
ATOM      4  C   UNL     1      23.264   2.070  50.651  0.00  0.00    +0.000 A 
ATOM      5  C   UNL     1      24.268   3.011  50.909  0.00  0.00    +0.000 A 
ATOM      6  C   UNL     1      25.080   2.861  52.064  0.00  0.00    +0.000 A 
ATOM      7  C   UNL     1      24.389   4.048  49.960  0.00  0.00    +0.000 A 
ATOM      8  N   UNL     1      23.604   4.107  48.870  0.00  0.00    +0.000 NA
ATOM      9  C   UNL     1      22.687   3.148  48.732  0.00  0.00    +0.000 A 
ATOM     10  N   UNL     1      22.474   2.133  49.576  0.00  0.00    +0.000 NA
ENDROOT
BRANCH   7  11
ATOM     11  N   UNL     1      25.359   5.064  50.177  0.00  0.00    +0.000 N 
ATOM     12  H   UNL     1      24.980   5.747  50.826  0.00  0.00    +0.000 HD
BRANCH  11  13
ATOM     13  C   UNL     1      26.221   5.675  49.238  0.00  0.00    +0.000 A 
ATOM     14  C   UNL     1      25.794   6.840  48.582  0.00  0.00    +0.000 A 
ATOM     15  C   UNL     1      26.630   7.520  47.694  0.00  0.00    +0.000 A 
ATOM     16  C   UNL     1      27.924   7.057  47.465  0.00  0.00    +0.000 A 
ATOM     17  C   UNL     1      28.382   5.923  48.135  0.00  0.00    +0.000 A 
ATOM     18  C   UNL     1      27.538   5.247  49.025  0.00  0.00    +0.000 A 
BRANCH  17  19
ATOM     19  C   UNL     1      29.718   5.458  47.921  0.00  0.00    +0.000 C 
ATOM     20  C   UNL     1      30.840   5.068  47.744  0.00  0.00    +0.000 C 
ENDBRANCH  17  19
ENDBRANCH  11  13
ENDBRANCH   7  11
BRANCH   1  21
ATOM     21  O   UNL     1      25.609   1.594  54.097  0.00  0.00    +0.000 OA
BRANCH  21  22
ATOM     22  C   UNL     1      27.004   1.316  53.997  0.00  0.00    +0.000 C 
BRANCH  22  23
ATOM     23  C   UNL     1      27.374   0.059  54.784  0.00  0.00    +0.000 C 
BRANCH  23  25
ATOM     24  C   UNL     1      27.082  -1.306  52.860  0.00  0.00    +0.000 C 
ATOM     25  O   UNL     1      27.927  -0.959  53.950  0.00  0.00    +0.000 OA
ENDBRANCH  23  25
ENDBRANCH  22  23
ENDBRANCH  21  22
ENDBRANCH   1  21
BRANCH   2  26
ATOM     26  O   UNL     1      23.714  -0.129  53.615  0.00  0.00    +0.000 OA
BRANCH  26  27
ATOM     27  C   UNL     1      22.602  -1.010  53.472  0.00  0.00    +0.000 C 
BRANCH  27  28
ATOM     28  C   UNL     1      21.647  -0.773  54.641  0.00  0.00    +0.000 C 
BRANCH  28  29
ATOM     29  O   UNL     1      20.703   0.262  54.365  0.00  0.00    +0.000 OA
ATOM     30  C   UNL     1      19.888  -0.017  53.233  0.00  0.00    +0.000 C 
ENDBRANCH  28  29
ENDBRANCH  27  28
ENDBRANCH  26  27
ENDBRANCH   2  26
TORSDOF 11
ENDMDL
MODEL 9
REMARK VINA RESULT:    -6.712      3.863      7.063
REMARK INTER + INTRA:         -12.309
REMARK INTER:                 -10.674
REMARK INTRA:                  -1.635
REMARK UNBOUND:                -1.282
REMARK  Name = 
REMARK  13 active torsions:
REMARK  status: ('A' for Active; 'I' for Inactive)
REMARK    1  A    between atoms: C_1  and  O_2
REMARK    2  A    between atoms: O_2  and  C_3
REMARK    3  A    between atoms: C_3  and  C_4
REMARK    4  A    between atoms: C_4  and  O_5
REMARK    5  A    between atoms: O_5  and  C_6
REMARK    6  A    between atoms: C_7  and  O_25
REMARK    7  A    between atoms: C_12  and  N_16
REMARK    8  A    between atoms: N_16  and  C_17
REMARK    9  A    between atoms: C_21  and  C_23
REMARK   10  A    between atoms: O_25  and  C_26
REMARK   11  A    between atoms: C_26  and  C_27
REMARK   12  A    between atoms: C_27  and  O_28
REMARK   13  A    between atoms: O_28  and  C_29
REMARK                            x       y       z     vdW  Elec       q    Type
REMARK                         _______ _______ _______ _____ _____    ______ ____
ROOT
ATOM      1  C   UNL     1      24.315   1.943  51.963  0.00  0.00    +0.000 A 
ATOM      2  C   UNL     1      25.384   1.186  52.469  0.00  0.00    +0.000 A 
ATOM      3  C   UNL     1      25.126   0.154  53.378  0.00  0.00    +0.000 A 
ATOM      4  C   UNL     1      23.841  -0.142  53.812  0.00  0.00    +0.000 A 
ATOM      5  C   UNL     1      22.769   0.618  53.331  0.00  0.00    +0.000 A 
ATOM      6  C   UNL     1      23.019   1.657  52.396  0.00  0.00    +0.000 A 
ATOM      7  C   UNL     1      21.498   0.262  53.828  0.00  0.00    +0.000 A 
ATOM      8  N   UNL     1      21.333  -0.757  54.689  0.00  0.00    +0.000 NA
ATOM      9  C   UNL     1      22.432  -1.411  55.070  0.00  0.00    +0.000 A 
ATOM     10  N   UNL     1      23.682  -1.147  54.678  0.00  0.00    +0.000 NA
ENDROOT
BRANCH   7  11
ATOM     11  N   UNL     1      20.366   1.017  53.416  0.00  0.00    +0.000 N 
ATOM     12  H   UNL     1      19.836   1.289  54.238  0.00  0.00    +0.000 HD
BRANCH  11  13
ATOM     13  C   UNL     1      19.515   0.795  52.309  0.00  0.00    +0.000 A 
ATOM     14  C   UNL     1      18.598  -0.267  52.360  0.00  0.00    +0.000 A 
ATOM     15  C   UNL     1      17.690  -0.490  51.322  0.00  0.00    +0.000 A 
ATOM     16  C   UNL     1      17.667   0.365  50.223  0.00  0.00    +0.000 A 
ATOM     17  C   UNL     1      18.543   1.448  50.170  0.00  0.00    +0.000 A 
ATOM     18  C   UNL     1      19.451   1.666  51.213  0.00  0.00    +0.000 A 
BRANCH  17  19
ATOM     19  C   UNL     1      18.507   2.342  49.053  0.00  0.00    +0.000 C 
ATOM     20  C   UNL     1      18.475   3.091  48.115  0.00  0.00    +0.000 C 
ENDBRANCH  17  19
ENDBRANCH  11  13
ENDBRANCH   7  11
BRANCH   1  21
ATOM     21  O   UNL     1      24.646   2.935  51.078  0.00  0.00    +0.000 OA
BRANCH  21  22
ATOM     22  C   UNL     1      23.662   3.901  50.712  0.00  0.00    +0.000 C 
BRANCH  22  23
ATOM     23  C   UNL     1      23.272   3.762  49.241  0.00  0.00    +0.000 C 
BRANCH  23  25
ATOM     24  C   UNL     1      22.148   1.767  48.603  0.00  0.00    +0.000 C 
ATOM     25  O   UNL     1      22.017   3.103  49.073  0.00  0.00    +0.000 OA
ENDBRANCH  23  25
ENDBRANCH  22  23
ENDBRANCH  21  22
ENDBRANCH   1  21
BRANCH   2  26
ATOM     26  O   UNL     1      26.631   1.528  52.011  0.00  0.00    +0.000 OA
BRANCH  26  27
ATOM     27  C   UNL     1      27.762   0.917  52.629  0.00  0.00    +0.000 C 
BRANCH  27  28
ATOM     28  C   UNL     1      28.513   1.986  53.422  0.00  0.00    +0.000 C 
BRANCH  28  29
ATOM     29  O   UNL     1      28.895   1.527  54.719  0.00  0.00    +0.000 OA
ATOM     30  C   UNL     1      28.635   0.143  54.916  0.00  0.00    +0.000 C 
ENDBRANCH  28  29
ENDBRANCH  27  28
ENDBRANCH  26  27
ENDBRANCH   2  26
TORSDOF 11
ENDMDL
